version 3
run OneMasterClock-0-20250714-17:16:42-16924
attr configname OneMasterClock
attr datetime 20250714-17:16:42
attr datetimef 20250714-171642
attr experiment OneMasterClock
attr inifile omnetpp.ini
attr iterationvars ""
attr iterationvarsd ""
attr iterationvarsf ""
attr measurement ""
attr network OneMasterClockGptpShowcase
attr processid 16924
attr repetition 0
attr replication #0
attr resultdir results
attr runnumber 0
attr seedset 0
config image-path ../../../../images
config network OneMasterClockGptpShowcase
config description "Basic tree topology with one master clock"
config experiment-label OneMasterClock
config *.tsnClock.gptp.masterPorts "[\"eth0\"]"
config *.tsnSwitch.gptp.masterPorts "[\"eth1\", \"eth2\"]"
config **.referenceClock "\"tsnClock.clock\""
config *.visualizer.dataLinkVisualizer[0].displayLinks true
config *.visualizer.dataLinkVisualizer[0].activityLevel "\"protocol\""
config *.visualizer.dataLinkVisualizer[0].packetFilter "\"GptpSync\""
config *.visualizer.dataLinkVisualizer[0].lineColor "\"blue2\""
config *.visualizer.numInfoVisualizers 3
config *.visualizer.infoVisualizer[0].modules "\"*.tsnClock.clock\""
config *.tsnClock.clock.displayStringTextFormat "\"time: %T\""
config *.visualizer.infoVisualizer[1].modules "\"*.tsnSwitch.clock\""
config *.visualizer.infoVisualizer[1].placementHint "\"topLeft\""
config *.visualizer.infoVisualizer[2].modules "\"*.tsnDevice*.clock\""
config *.visualizer.infoVisualizer[2].placementHint "\"bottom\""
config *.tsnDevice*.clock.displayStringTextFormat "\"diff: %d\""
config *.tsnSwitch.clock.displayStringTextFormat "\"diff: %d\""
config experiment-label OneMasterClock
config sim-time-limit 1s
config description abstract
config *.*.hasTimeSynchronization true
config **.tsnClock*.clock.oscillator.typename RandomDriftOscillator
config **.oscillator.changeInterval 12.5ms
config **.oscillator.driftRate "uniform(-100ppm, 100ppm)"
config **.oscillator.driftRateChange "uniform(-1ppm, 1ppm)"
config **.oscillator.driftRateChangeUpperLimit 100ppm
config **.oscillator.driftRateChangeLowerLimit -100ppm
config *.*.eth[*].bitrate 100Mbps
config *.visualizer.typename IntegratedMultiCanvasVisualizer
config *.visualizer.infoVisualizer[*].displayInfos true

vector 0 OneMasterClockGptpShowcase.tsnClock.clock.oscillator driftRateChanged:vector ETV
attr interpolationmode sample-hold
attr recordingmode vector
attr title "Oscillator drift rate"
attr unit ppm
vector 1 OneMasterClockGptpShowcase.tsnClock.clock timeChanged:vector ETV
attr interpolationmode linear
attr recordingmode vector
attr title "Clock time"
vector 2 OneMasterClockGptpShowcase.tsnClock.ethernet.macHeaderInserter incomingPacketLengths:vector ETV
attr interpolationmode none
attr recordingmode vector
attr source "packetLength(merge(packetPushedIn, packetPulledIn))"
attr title "incoming packet lengths"
attr unit b
vector 3 OneMasterClockGptpShowcase.tsnClock.ethernet.macHeaderInserter incomingDataRate:vector ETV
attr interpolationmode linear
attr recordingmode vector
attr source "throughput(merge(packetPushedIn, packetPulledIn))"
attr title "incoming data rate"
attr unit bps
vector 4 OneMasterClockGptpShowcase.tsnClock.ethernet.macHeaderInserter outgoingPacketLengths:vector ETV
attr interpolationmode none
attr recordingmode vector
attr source "packetLength(merge(packetPushedOut, packetPulledOut))"
attr title "outgoing packet lengths"
attr unit b
vector 5 OneMasterClockGptpShowcase.tsnClock.ethernet.macHeaderInserter outgoingDataRate:vector ETV
attr interpolationmode linear
attr recordingmode vector
attr source "throughput(merge(packetPushedOut, packetPulledOut))"
attr title "outgoing data rate"
attr unit bps
vector 6 OneMasterClockGptpShowcase.tsnClock.ethernet.macHeaderInserter flowIncomingPacketLengths:vector ETV
attr interpolationmode none
attr recordingmode vector
attr source "packetLength(demuxFlow(merge(packetPushedIn, packetPulledIn)))"
attr title "flow specific incoming packet lengths"
attr unit b
vector 7 OneMasterClockGptpShowcase.tsnClock.ethernet.macHeaderInserter flowIncomingDataRate:vector ETV
attr interpolationmode linear
attr recordingmode vector
attr source "throughput(demuxFlow(merge(packetPushedIn, packetPulledIn)))"
attr title "flow specific incoming data rate"
attr unit bps
vector 8 OneMasterClockGptpShowcase.tsnClock.ethernet.macHeaderInserter flowOutgoingPacketLengths:vector ETV
attr interpolationmode none
attr recordingmode vector
attr source "packetLength(demuxFlow(merge(packetPushedOut, packetPulledOut)))"
attr title "flow specific outgoing packet lengths"
attr unit b
vector 9 OneMasterClockGptpShowcase.tsnClock.ethernet.macHeaderInserter flowOutgoingDataRate:vector ETV
attr interpolationmode linear
attr recordingmode vector
attr source "throughput(demuxFlow(merge(packetPushedOut, packetPulledOut)))"
attr title "flow specific outgoing data rate"
attr unit bps
vector 10 OneMasterClockGptpShowcase.tsnClock.ethernet.paddingInserter incomingPacketLengths:vector ETV
attr interpolationmode none
attr recordingmode vector
attr source "packetLength(merge(packetPushedIn, packetPulledIn))"
attr title "incoming packet lengths"
attr unit b
vector 11 OneMasterClockGptpShowcase.tsnClock.ethernet.paddingInserter incomingDataRate:vector ETV
attr interpolationmode linear
attr recordingmode vector
attr source "throughput(merge(packetPushedIn, packetPulledIn))"
attr title "incoming data rate"
attr unit bps
vector 12 OneMasterClockGptpShowcase.tsnClock.ethernet.paddingInserter outgoingPacketLengths:vector ETV
attr interpolationmode none
attr recordingmode vector
attr source "packetLength(merge(packetPushedOut, packetPulledOut))"
attr title "outgoing packet lengths"
attr unit b
vector 13 OneMasterClockGptpShowcase.tsnClock.ethernet.paddingInserter outgoingDataRate:vector ETV
attr interpolationmode linear
attr recordingmode vector
attr source "throughput(merge(packetPushedOut, packetPulledOut))"
attr title "outgoing data rate"
attr unit bps
vector 14 OneMasterClockGptpShowcase.tsnClock.ethernet.paddingInserter flowIncomingPacketLengths:vector ETV
attr interpolationmode none
attr recordingmode vector
attr source "packetLength(demuxFlow(merge(packetPushedIn, packetPulledIn)))"
attr title "flow specific incoming packet lengths"
attr unit b
vector 15 OneMasterClockGptpShowcase.tsnClock.ethernet.paddingInserter flowIncomingDataRate:vector ETV
attr interpolationmode linear
attr recordingmode vector
attr source "throughput(demuxFlow(merge(packetPushedIn, packetPulledIn)))"
attr title "flow specific incoming data rate"
attr unit bps
vector 16 OneMasterClockGptpShowcase.tsnClock.ethernet.paddingInserter flowOutgoingPacketLengths:vector ETV
attr interpolationmode none
attr recordingmode vector
attr source "packetLength(demuxFlow(merge(packetPushedOut, packetPulledOut)))"
attr title "flow specific outgoing packet lengths"
attr unit b
vector 17 OneMasterClockGptpShowcase.tsnClock.ethernet.paddingInserter flowOutgoingDataRate:vector ETV
attr interpolationmode linear
attr recordingmode vector
attr source "throughput(demuxFlow(merge(packetPushedOut, packetPulledOut)))"
attr title "flow specific outgoing data rate"
attr unit bps
vector 18 OneMasterClockGptpShowcase.tsnClock.ethernet.fcsInserter incomingPacketLengths:vector ETV
attr interpolationmode none
attr recordingmode vector
attr source "packetLength(merge(packetPushedIn, packetPulledIn))"
attr title "incoming packet lengths"
attr unit b
vector 19 OneMasterClockGptpShowcase.tsnClock.ethernet.fcsInserter incomingDataRate:vector ETV
attr interpolationmode linear
attr recordingmode vector
attr source "throughput(merge(packetPushedIn, packetPulledIn))"
attr title "incoming data rate"
attr unit bps
vector 20 OneMasterClockGptpShowcase.tsnClock.ethernet.fcsInserter outgoingPacketLengths:vector ETV
attr interpolationmode none
attr recordingmode vector
attr source "packetLength(merge(packetPushedOut, packetPulledOut))"
attr title "outgoing packet lengths"
attr unit b
vector 21 OneMasterClockGptpShowcase.tsnClock.ethernet.fcsInserter outgoingDataRate:vector ETV
attr interpolationmode linear
attr recordingmode vector
attr source "throughput(merge(packetPushedOut, packetPulledOut))"
attr title "outgoing data rate"
attr unit bps
vector 22 OneMasterClockGptpShowcase.tsnClock.ethernet.fcsInserter flowIncomingPacketLengths:vector ETV
attr interpolationmode none
attr recordingmode vector
attr source "packetLength(demuxFlow(merge(packetPushedIn, packetPulledIn)))"
attr title "flow specific incoming packet lengths"
attr unit b
vector 23 OneMasterClockGptpShowcase.tsnClock.ethernet.fcsInserter flowIncomingDataRate:vector ETV
attr interpolationmode linear
attr recordingmode vector
attr source "throughput(demuxFlow(merge(packetPushedIn, packetPulledIn)))"
attr title "flow specific incoming data rate"
attr unit bps
vector 24 OneMasterClockGptpShowcase.tsnClock.ethernet.fcsInserter flowOutgoingPacketLengths:vector ETV
attr interpolationmode none
attr recordingmode vector
attr source "packetLength(demuxFlow(merge(packetPushedOut, packetPulledOut)))"
attr title "flow specific outgoing packet lengths"
attr unit b
vector 25 OneMasterClockGptpShowcase.tsnClock.ethernet.fcsInserter flowOutgoingDataRate:vector ETV
attr interpolationmode linear
attr recordingmode vector
attr source "throughput(demuxFlow(merge(packetPushedOut, packetPulledOut)))"
attr title "flow specific outgoing data rate"
attr unit bps
vector 26 OneMasterClockGptpShowcase.tsnClock.ethernet.macHeaderChecker incomingPacketLengths:vector ETV
attr interpolationmode none
attr recordingmode vector
attr source "packetLength(merge(packetPushedIn, packetPulledIn))"
attr title "incoming packet lengths"
attr unit b
vector 27 OneMasterClockGptpShowcase.tsnClock.ethernet.macHeaderChecker incomingDataRate:vector ETV
attr interpolationmode linear
attr recordingmode vector
attr source "throughput(merge(packetPushedIn, packetPulledIn))"
attr title "incoming data rate"
attr unit bps
vector 28 OneMasterClockGptpShowcase.tsnClock.ethernet.macHeaderChecker outgoingPacketLengths:vector ETV
attr interpolationmode none
attr recordingmode vector
attr source "packetLength(merge(packetPushedOut, packetPulledOut))"
attr title "outgoing packet lengths"
attr unit b
vector 29 OneMasterClockGptpShowcase.tsnClock.ethernet.macHeaderChecker outgoingDataRate:vector ETV
attr interpolationmode linear
attr recordingmode vector
attr source "throughput(merge(packetPushedOut, packetPulledOut))"
attr title "outgoing data rate"
attr unit bps
vector 30 OneMasterClockGptpShowcase.tsnClock.ethernet.macHeaderChecker droppedPacketLengths:vector ETV
attr interpolationmode none
attr recordingmode vector
attr source packetLength(packetDropped)
attr title "dropped packet lengths"
attr unit b
vector 31 OneMasterClockGptpShowcase.tsnClock.ethernet.macHeaderChecker droppedDataRate:vector ETV
attr interpolationmode linear
attr recordingmode vector
attr source throughput(packetDropped)
attr title "dropped data rate"
attr unit bps
vector 32 OneMasterClockGptpShowcase.tsnClock.ethernet.macHeaderChecker flowIncomingPacketLengths:vector ETV
attr interpolationmode none
attr recordingmode vector
attr source "packetLength(demuxFlow(merge(packetPushedIn, packetPulledIn)))"
attr title "flow specific incoming packet lengths"
attr unit b
vector 33 OneMasterClockGptpShowcase.tsnClock.ethernet.macHeaderChecker flowIncomingDataRate:vector ETV
attr interpolationmode linear
attr recordingmode vector
attr source "throughput(demuxFlow(merge(packetPushedIn, packetPulledIn)))"
attr title "flow specific incoming data rate"
attr unit bps
vector 34 OneMasterClockGptpShowcase.tsnClock.ethernet.macHeaderChecker flowOutgoingPacketLengths:vector ETV
attr interpolationmode none
attr recordingmode vector
attr source "packetLength(demuxFlow(merge(packetPushedOut, packetPulledOut)))"
attr title "flow specific outgoing packet lengths"
attr unit b
vector 35 OneMasterClockGptpShowcase.tsnClock.ethernet.macHeaderChecker flowOutgoingDataRate:vector ETV
attr interpolationmode linear
attr recordingmode vector
attr source "throughput(demuxFlow(merge(packetPushedOut, packetPulledOut)))"
attr title "flow specific outgoing data rate"
attr unit bps
vector 36 OneMasterClockGptpShowcase.tsnClock.ethernet.macHeaderChecker flowDroppedPacketLengths:vector ETV
attr interpolationmode none
attr recordingmode vector
attr source packetLength(demuxFlow(packetDropped))
attr title "flow specific dropped packet lengths"
attr unit b
vector 37 OneMasterClockGptpShowcase.tsnClock.ethernet.macHeaderChecker flowDroppedDataRate:vector ETV
attr interpolationmode linear
attr recordingmode vector
attr source throughput(demuxFlow(packetDropped))
attr title "flow specific dropped data rate"
attr unit bps
vector 38 OneMasterClockGptpShowcase.tsnClock.ethernet.fcsChecker incomingPacketLengths:vector ETV
attr interpolationmode none
attr recordingmode vector
attr source "packetLength(merge(packetPushedIn, packetPulledIn))"
attr title "incoming packet lengths"
attr unit b
vector 39 OneMasterClockGptpShowcase.tsnClock.ethernet.fcsChecker incomingDataRate:vector ETV
attr interpolationmode linear
attr recordingmode vector
attr source "throughput(merge(packetPushedIn, packetPulledIn))"
attr title "incoming data rate"
attr unit bps
vector 40 OneMasterClockGptpShowcase.tsnClock.ethernet.fcsChecker outgoingPacketLengths:vector ETV
attr interpolationmode none
attr recordingmode vector
attr source "packetLength(merge(packetPushedOut, packetPulledOut))"
attr title "outgoing packet lengths"
attr unit b
vector 41 OneMasterClockGptpShowcase.tsnClock.ethernet.fcsChecker outgoingDataRate:vector ETV
attr interpolationmode linear
attr recordingmode vector
attr source "throughput(merge(packetPushedOut, packetPulledOut))"
attr title "outgoing data rate"
attr unit bps
vector 42 OneMasterClockGptpShowcase.tsnClock.ethernet.fcsChecker droppedPacketLengths:vector ETV
attr interpolationmode none
attr recordingmode vector
attr source packetLength(packetDropped)
attr title "dropped packet lengths"
attr unit b
vector 43 OneMasterClockGptpShowcase.tsnClock.ethernet.fcsChecker droppedDataRate:vector ETV
attr interpolationmode linear
attr recordingmode vector
attr source throughput(packetDropped)
attr title "dropped data rate"
attr unit bps
vector 44 OneMasterClockGptpShowcase.tsnClock.ethernet.fcsChecker flowIncomingPacketLengths:vector ETV
attr interpolationmode none
attr recordingmode vector
attr source "packetLength(demuxFlow(merge(packetPushedIn, packetPulledIn)))"
attr title "flow specific incoming packet lengths"
attr unit b
vector 45 OneMasterClockGptpShowcase.tsnClock.ethernet.fcsChecker flowIncomingDataRate:vector ETV
attr interpolationmode linear
attr recordingmode vector
attr source "throughput(demuxFlow(merge(packetPushedIn, packetPulledIn)))"
attr title "flow specific incoming data rate"
attr unit bps
vector 46 OneMasterClockGptpShowcase.tsnClock.ethernet.fcsChecker flowOutgoingPacketLengths:vector ETV
attr interpolationmode none
attr recordingmode vector
attr source "packetLength(demuxFlow(merge(packetPushedOut, packetPulledOut)))"
attr title "flow specific outgoing packet lengths"
attr unit b
vector 47 OneMasterClockGptpShowcase.tsnClock.ethernet.fcsChecker flowOutgoingDataRate:vector ETV
attr interpolationmode linear
attr recordingmode vector
attr source "throughput(demuxFlow(merge(packetPushedOut, packetPulledOut)))"
attr title "flow specific outgoing data rate"
attr unit bps
vector 48 OneMasterClockGptpShowcase.tsnClock.ethernet.fcsChecker flowDroppedPacketLengths:vector ETV
attr interpolationmode none
attr recordingmode vector
attr source packetLength(demuxFlow(packetDropped))
attr title "flow specific dropped packet lengths"
attr unit b
vector 49 OneMasterClockGptpShowcase.tsnClock.ethernet.fcsChecker flowDroppedDataRate:vector ETV
attr interpolationmode linear
attr recordingmode vector
attr source throughput(demuxFlow(packetDropped))
attr title "flow specific dropped data rate"
attr unit bps
vector 50 OneMasterClockGptpShowcase.tsnClock.lo[0].lo rcvdPkFromHl:vector(packetBytes) ETV
attr interpolationmode none
attr recordingmode vector(packetBytes)
attr source packetReceivedFromUpper
attr title "packets received from higher layer, packetBytes"
vector 51 OneMasterClockGptpShowcase.tsnClock.lo[0].lo passedUpPk:vector(packetBytes) ETV
attr interpolationmode none
attr recordingmode vector(packetBytes)
attr source packetSentToUpper
attr title "packets passed to higher layer, packetBytes"
vector 52 OneMasterClockGptpShowcase.tsnClock.lo[0] packetDropInterfaceDown:vector(packetBytes) ETV
attr interpolationmode none
attr recordingmode vector(packetBytes)
attr source packetDropReasonIsInterfaceDown(packetDropped)
attr title "packet drops: interface down, packetBytes"
vector 53 OneMasterClockGptpShowcase.tsnClock.lo[0] packetDropNoCarrier:vector(packetBytes) ETV
attr interpolationmode none
attr recordingmode vector(packetBytes)
attr source packetDropReasonIsNoCarrier(packetDropped)
attr title "packet drops: no carrier, packetBytes"
vector 54 OneMasterClockGptpShowcase.tsnClock.eth[0].macLayer.queue queueLength:vector ETV
attr autoWarmupFilter false
attr interpolationmode sample-hold
attr recordingmode vector
attr source "warmup(atomic(constant0(packetPushEnded) + count(packetPushStarted) - count(packetPulled) - count(packetRemoved) - count(packetDropped)))"
attr title "queue length"
attr unit pk
vector 55 OneMasterClockGptpShowcase.tsnClock.eth[0].macLayer.queue queueBitLength:vector ETV
attr autoWarmupFilter false
attr interpolationmode sample-hold
attr recordingmode vector
attr source "warmup(atomic(constant0(packetPushEnded) + sum(packetLength(packetPushStarted)) - sum(packetLength(packetPulled)) - sum(packetLength(packetRemoved)) - sum(packetLength(packetDropped))))"
attr title "queue bit length"
attr unit b
vector 56 OneMasterClockGptpShowcase.tsnClock.eth[0].macLayer.queue queueingTime:vector ETV
attr interpolationmode none
attr recordingmode vector
attr source queueingTime(packetPulled)
attr title "queueing times"
attr unit s
vector 57 OneMasterClockGptpShowcase.tsnClock.eth[0].macLayer.queue incomingPacketLengths:vector ETV
attr interpolationmode none
attr recordingmode vector
attr source packetLength(packetPushStarted)
attr title "incoming packet lengths"
attr unit b
vector 58 OneMasterClockGptpShowcase.tsnClock.eth[0].macLayer.queue incomingDataRate:vector ETV
attr interpolationmode linear
attr recordingmode vector
attr source throughput(packetPushStarted)
attr title "incoming datarate"
attr unit bps
vector 59 OneMasterClockGptpShowcase.tsnClock.eth[0].macLayer.queue outgoingPacketLengths:vector ETV
attr interpolationmode none
attr recordingmode vector
attr source packetLength(packetPulled)
attr title "outgoing packet lengths"
attr unit b
vector 60 OneMasterClockGptpShowcase.tsnClock.eth[0].macLayer.queue outgoingDataRate:vector ETV
attr interpolationmode linear
attr recordingmode vector
attr source throughput(packetPulled)
attr title "outgoing datarate"
attr unit bps
vector 61 OneMasterClockGptpShowcase.tsnClock.eth[0].macLayer.queue droppedPacketLengthsQueueOverflow:vector ETV
attr interpolationmode none
attr recordingmode vector
attr source packetLength(packetDropReasonIsQueueOverflow(packetDropped))
attr title "dropped packet lengths: queue overflow"
attr unit b
vector 62 OneMasterClockGptpShowcase.tsnClock.eth[0].macLayer.queue flowQueueingTime:vector ETV
attr interpolationmode none
attr recordingmode vector
attr source queueingTime(demuxFlow(packetPulled))
attr title "flow queueing times"
attr unit s
vector 63 OneMasterClockGptpShowcase.tsnClock.eth[0].macLayer.queue flowIncomingDataRate:vector ETV
attr interpolationmode linear
attr recordingmode vector
attr source throughput(flowPacketLength(demuxFlow(packetPushStarted)))
attr title "flow specific incoming data rate"
attr unit bps
vector 64 OneMasterClockGptpShowcase.tsnClock.eth[0].macLayer.queue flowOutgoingDataRate:vector ETV
attr interpolationmode linear
attr recordingmode vector
attr source throughput(flowPacketLength(demuxFlow(packetPulled)))
attr title "flow specific outgoing data rate"
attr unit bps
vector 65 OneMasterClockGptpShowcase.tsnClock.eth[0].macLayer.server incomingPacketLengths:vector ETV
attr interpolationmode none
attr recordingmode vector
attr source packetLength(packetPulled)
attr title "incoming packet lengths"
attr unit b
vector 66 OneMasterClockGptpShowcase.tsnClock.eth[0].macLayer.server incomingDataRate:vector ETV
attr interpolationmode linear
attr recordingmode vector
attr source throughput(packetPulled)
attr title "incoming datarate"
attr unit bps
vector 67 OneMasterClockGptpShowcase.tsnClock.eth[0].macLayer.server outgoingPacketLengths:vector ETV
attr interpolationmode none
attr recordingmode vector
attr source packetLength(packetPushed)
attr title "outgoing packet lengths"
attr unit b
vector 68 OneMasterClockGptpShowcase.tsnClock.eth[0].macLayer.server outgoingDataRate:vector ETV
attr interpolationmode linear
attr recordingmode vector
attr source throughput(packetPushed)
attr title "outgoing datarate"
attr unit bps
vector 69 OneMasterClockGptpShowcase.tsnClock.eth[0].macLayer.outboundEmitter incomingPacketLengths:vector ETV
attr interpolationmode none
attr recordingmode vector
attr source "packetLength(merge(packetPushedIn, packetPulledIn))"
attr title "incoming packet lengths"
attr unit b
vector 70 OneMasterClockGptpShowcase.tsnClock.eth[0].macLayer.outboundEmitter incomingDataRate:vector ETV
attr interpolationmode linear
attr recordingmode vector
attr source "throughput(merge(packetPushedIn, packetPulledIn))"
attr title "incoming data rate"
attr unit bps
vector 71 OneMasterClockGptpShowcase.tsnClock.eth[0].macLayer.outboundEmitter outgoingPacketLengths:vector ETV
attr interpolationmode none
attr recordingmode vector
attr source "packetLength(merge(packetPushedOut, packetPulledOut))"
attr title "outgoing packet lengths"
attr unit b
vector 72 OneMasterClockGptpShowcase.tsnClock.eth[0].macLayer.outboundEmitter outgoingDataRate:vector ETV
attr interpolationmode linear
attr recordingmode vector
attr source "throughput(merge(packetPushedOut, packetPulledOut))"
attr title "outgoing data rate"
attr unit bps
vector 73 OneMasterClockGptpShowcase.tsnClock.eth[0].macLayer.outboundEmitter flowIncomingPacketLengths:vector ETV
attr interpolationmode none
attr recordingmode vector
attr source "packetLength(demuxFlow(merge(packetPushedIn, packetPulledIn)))"
attr title "flow specific incoming packet lengths"
attr unit b
vector 74 OneMasterClockGptpShowcase.tsnClock.eth[0].macLayer.outboundEmitter flowIncomingDataRate:vector ETV
attr interpolationmode linear
attr recordingmode vector
attr source "throughput(demuxFlow(merge(packetPushedIn, packetPulledIn)))"
attr title "flow specific incoming data rate"
attr unit bps
vector 75 OneMasterClockGptpShowcase.tsnClock.eth[0].macLayer.outboundEmitter flowOutgoingPacketLengths:vector ETV
attr interpolationmode none
attr recordingmode vector
attr source "packetLength(demuxFlow(merge(packetPushedOut, packetPulledOut)))"
attr title "flow specific outgoing packet lengths"
attr unit b
vector 76 OneMasterClockGptpShowcase.tsnClock.eth[0].macLayer.outboundEmitter flowOutgoingDataRate:vector ETV
attr interpolationmode linear
attr recordingmode vector
attr source "throughput(demuxFlow(merge(packetPushedOut, packetPulledOut)))"
attr title "flow specific outgoing data rate"
attr unit bps
vector 77 OneMasterClockGptpShowcase.tsnClock.eth[0].macLayer.fcsChecker incomingPacketLengths:vector ETV
attr interpolationmode none
attr recordingmode vector
attr source "packetLength(merge(packetPushedIn, packetPulledIn))"
attr title "incoming packet lengths"
attr unit b
vector 78 OneMasterClockGptpShowcase.tsnClock.eth[0].macLayer.fcsChecker incomingDataRate:vector ETV
attr interpolationmode linear
attr recordingmode vector
attr source "throughput(merge(packetPushedIn, packetPulledIn))"
attr title "incoming data rate"
attr unit bps
vector 79 OneMasterClockGptpShowcase.tsnClock.eth[0].macLayer.fcsChecker outgoingPacketLengths:vector ETV
attr interpolationmode none
attr recordingmode vector
attr source "packetLength(merge(packetPushedOut, packetPulledOut))"
attr title "outgoing packet lengths"
attr unit b
vector 80 OneMasterClockGptpShowcase.tsnClock.eth[0].macLayer.fcsChecker outgoingDataRate:vector ETV
attr interpolationmode linear
attr recordingmode vector
attr source "throughput(merge(packetPushedOut, packetPulledOut))"
attr title "outgoing data rate"
attr unit bps
vector 81 OneMasterClockGptpShowcase.tsnClock.eth[0].macLayer.fcsChecker droppedPacketLengths:vector ETV
attr interpolationmode none
attr recordingmode vector
attr source packetLength(packetDropped)
attr title "dropped packet lengths"
attr unit b
vector 82 OneMasterClockGptpShowcase.tsnClock.eth[0].macLayer.fcsChecker droppedDataRate:vector ETV
attr interpolationmode linear
attr recordingmode vector
attr source throughput(packetDropped)
attr title "dropped data rate"
attr unit bps
vector 83 OneMasterClockGptpShowcase.tsnClock.eth[0].macLayer.fcsChecker flowIncomingPacketLengths:vector ETV
attr interpolationmode none
attr recordingmode vector
attr source "packetLength(demuxFlow(merge(packetPushedIn, packetPulledIn)))"
attr title "flow specific incoming packet lengths"
attr unit b
vector 84 OneMasterClockGptpShowcase.tsnClock.eth[0].macLayer.fcsChecker flowIncomingDataRate:vector ETV
attr interpolationmode linear
attr recordingmode vector
attr source "throughput(demuxFlow(merge(packetPushedIn, packetPulledIn)))"
attr title "flow specific incoming data rate"
attr unit bps
vector 85 OneMasterClockGptpShowcase.tsnClock.eth[0].macLayer.fcsChecker flowOutgoingPacketLengths:vector ETV
attr interpolationmode none
attr recordingmode vector
attr source "packetLength(demuxFlow(merge(packetPushedOut, packetPulledOut)))"
attr title "flow specific outgoing packet lengths"
attr unit b
vector 86 OneMasterClockGptpShowcase.tsnClock.eth[0].macLayer.fcsChecker flowOutgoingDataRate:vector ETV
attr interpolationmode linear
attr recordingmode vector
attr source "throughput(demuxFlow(merge(packetPushedOut, packetPulledOut)))"
attr title "flow specific outgoing data rate"
attr unit bps
vector 87 OneMasterClockGptpShowcase.tsnClock.eth[0].macLayer.fcsChecker flowDroppedPacketLengths:vector ETV
attr interpolationmode none
attr recordingmode vector
attr source packetLength(demuxFlow(packetDropped))
attr title "flow specific dropped packet lengths"
attr unit b
vector 88 OneMasterClockGptpShowcase.tsnClock.eth[0].macLayer.fcsChecker flowDroppedDataRate:vector ETV
attr interpolationmode linear
attr recordingmode vector
attr source throughput(demuxFlow(packetDropped))
attr title "flow specific dropped data rate"
attr unit bps
vector 89 OneMasterClockGptpShowcase.tsnClock.eth[0].macLayer.inboundEmitter incomingPacketLengths:vector ETV
attr interpolationmode none
attr recordingmode vector
attr source "packetLength(merge(packetPushedIn, packetPulledIn))"
attr title "incoming packet lengths"
attr unit b
vector 90 OneMasterClockGptpShowcase.tsnClock.eth[0].macLayer.inboundEmitter incomingDataRate:vector ETV
attr interpolationmode linear
attr recordingmode vector
attr source "throughput(merge(packetPushedIn, packetPulledIn))"
attr title "incoming data rate"
attr unit bps
vector 91 OneMasterClockGptpShowcase.tsnClock.eth[0].macLayer.inboundEmitter outgoingPacketLengths:vector ETV
attr interpolationmode none
attr recordingmode vector
attr source "packetLength(merge(packetPushedOut, packetPulledOut))"
attr title "outgoing packet lengths"
attr unit b
vector 92 OneMasterClockGptpShowcase.tsnClock.eth[0].macLayer.inboundEmitter outgoingDataRate:vector ETV
attr interpolationmode linear
attr recordingmode vector
attr source "throughput(merge(packetPushedOut, packetPulledOut))"
attr title "outgoing data rate"
attr unit bps
vector 93 OneMasterClockGptpShowcase.tsnClock.eth[0].macLayer.inboundEmitter flowIncomingPacketLengths:vector ETV
attr interpolationmode none
attr recordingmode vector
attr source "packetLength(demuxFlow(merge(packetPushedIn, packetPulledIn)))"
attr title "flow specific incoming packet lengths"
attr unit b
vector 94 OneMasterClockGptpShowcase.tsnClock.eth[0].macLayer.inboundEmitter flowIncomingDataRate:vector ETV
attr interpolationmode linear
attr recordingmode vector
attr source "throughput(demuxFlow(merge(packetPushedIn, packetPulledIn)))"
attr title "flow specific incoming data rate"
attr unit bps
vector 95 OneMasterClockGptpShowcase.tsnClock.eth[0].macLayer.inboundEmitter flowOutgoingPacketLengths:vector ETV
attr interpolationmode none
attr recordingmode vector
attr source "packetLength(demuxFlow(merge(packetPushedOut, packetPulledOut)))"
attr title "flow specific outgoing packet lengths"
attr unit b
vector 96 OneMasterClockGptpShowcase.tsnClock.eth[0].macLayer.inboundEmitter flowOutgoingDataRate:vector ETV
attr interpolationmode linear
attr recordingmode vector
attr source "throughput(demuxFlow(merge(packetPushedOut, packetPulledOut)))"
attr title "flow specific outgoing data rate"
attr unit bps
vector 97 OneMasterClockGptpShowcase.tsnClock.eth[0].phyLayer.phyHeaderInserter incomingPacketLengths:vector ETV
attr interpolationmode none
attr recordingmode vector
attr source "packetLength(merge(packetPushedIn, packetPulledIn))"
attr title "incoming packet lengths"
attr unit b
vector 98 OneMasterClockGptpShowcase.tsnClock.eth[0].phyLayer.phyHeaderInserter incomingDataRate:vector ETV
attr interpolationmode linear
attr recordingmode vector
attr source "throughput(merge(packetPushedIn, packetPulledIn))"
attr title "incoming data rate"
attr unit bps
vector 99 OneMasterClockGptpShowcase.tsnClock.eth[0].phyLayer.phyHeaderInserter outgoingPacketLengths:vector ETV
attr interpolationmode none
attr recordingmode vector
attr source "packetLength(merge(packetPushedOut, packetPulledOut))"
attr title "outgoing packet lengths"
attr unit b
vector 100 OneMasterClockGptpShowcase.tsnClock.eth[0].phyLayer.phyHeaderInserter outgoingDataRate:vector ETV